# vtk DataFile Version 2.0
Written using Python VTK writer (Taiwo)
ASCII

DATASET UNSTRUCTURED_GRID
POINTS 323 float
0.000000 0.000000 0.000000
0.015625 0.000000 0.000000
0.031250 0.000000 0.000000
0.046875 0.000000 0.000000
0.062500 0.000000 0.000000
0.078125 0.000000 0.000000
0.093750 0.000000 0.000000
0.109375 0.000000 0.000000
0.125000 0.000000 0.000000
0.140625 0.000000 0.000000
0.156250 0.000000 0.000000
0.171875 0.000000 0.000000
0.187500 0.000000 0.000000
0.203125 0.000000 0.000000
0.218750 0.000000 0.000000
0.234375 0.000000 0.000000
0.250000 0.000000 0.000000
0.265625 0.000000 0.000000
0.281250 0.000000 0.000000
0.296875 0.000000 0.000000
0.312500 0.000000 0.000000
0.328125 0.000000 0.000000
0.343750 0.000000 0.000000
0.359375 0.000000 0.000000
0.375000 0.000000 0.000000
0.390625 0.000000 0.000000
0.406250 0.000000 0.000000
0.421875 0.000000 0.000000
0.437500 0.000000 0.000000
0.453125 0.000000 0.000000
0.468750 0.000000 0.000000
0.484375 0.000000 0.000000
0.500000 0.000000 0.000000
0.515625 0.000000 0.000000
0.531250 0.000000 0.000000
0.546875 0.000000 0.000000
0.562500 0.000000 0.000000
0.578125 0.000000 0.000000
0.593750 0.000000 0.000000
0.609375 0.000000 0.000000
0.625000 0.000000 0.000000
0.640625 0.000000 0.000000
0.656250 0.000000 0.000000
0.671875 0.000000 0.000000
0.687500 0.000000 0.000000
0.703125 0.000000 0.000000
0.718750 0.000000 0.000000
0.734375 0.000000 0.000000
0.750000 0.000000 0.000000
0.765625 0.000000 0.000000
0.781250 0.000000 0.000000
0.796875 0.000000 0.000000
0.812500 0.000000 0.000000
0.828125 0.000000 0.000000
0.843750 0.000000 0.000000
0.859375 0.000000 0.000000
0.875000 0.000000 0.000000
0.890625 0.000000 0.000000
0.906250 0.000000 0.000000
0.921875 0.000000 0.000000
0.937500 0.000000 0.000000
0.953125 0.000000 0.000000
0.968750 0.000000 0.000000
0.984375 0.000000 0.000000
1.000000 0.000000 0.000000
0.007812 0.000000 0.000000
0.023438 0.000000 0.000000
0.039062 0.000000 0.000000
0.054688 0.000000 0.000000
0.070312 0.000000 0.000000
0.085938 0.000000 0.000000
0.101562 0.000000 0.000000
0.117188 0.000000 0.000000
0.132812 0.000000 0.000000
0.148438 0.000000 0.000000
0.164062 0.000000 0.000000
0.179688 0.000000 0.000000
0.195312 0.000000 0.000000
0.210938 0.000000 0.000000
0.226562 0.000000 0.000000
0.242188 0.000000 0.000000
0.257812 0.000000 0.000000
0.273438 0.000000 0.000000
0.289062 0.000000 0.000000
0.304688 0.000000 0.000000
0.320312 0.000000 0.000000
0.335938 0.000000 0.000000
0.351562 0.000000 0.000000
0.367188 0.000000 0.000000
0.382812 0.000000 0.000000
0.398438 0.000000 0.000000
0.414062 0.000000 0.000000
0.429688 0.000000 0.000000
0.445312 0.000000 0.000000
0.460938 0.000000 0.000000
0.476562 0.000000 0.000000
0.492188 0.000000 0.000000
0.507812 0.000000 0.000000
0.523438 0.000000 0.000000
0.539062 0.000000 0.000000
0.554688 0.000000 0.000000
0.570312 0.000000 0.000000
0.585938 0.000000 0.000000
0.601562 0.000000 0.000000
0.617188 0.000000 0.000000
0.632812 0.000000 0.000000
0.648438 0.000000 0.000000
0.664062 0.000000 0.000000
0.679688 0.000000 0.000000
0.695312 0.000000 0.000000
0.710938 0.000000 0.000000
0.726562 0.000000 0.000000
0.742188 0.000000 0.000000
0.757812 0.000000 0.000000
0.773438 0.000000 0.000000
0.789062 0.000000 0.000000
0.804688 0.000000 0.000000
0.820312 0.000000 0.000000
0.835938 0.000000 0.000000
0.851562 0.000000 0.000000
0.867188 0.000000 0.000000
0.882812 0.000000 0.000000
0.898438 0.000000 0.000000
0.914062 0.000000 0.000000
0.929688 0.000000 0.000000
0.945312 0.000000 0.000000
0.960938 0.000000 0.000000
0.976562 0.000000 0.000000
0.992188 0.000000 0.000000
0.000000 0.100000 0.000000
0.015625 0.100000 0.000000
0.031250 0.100000 0.000000
0.046875 0.100000 0.000000
0.062500 0.100000 0.000000
0.078125 0.100000 0.000000
0.093750 0.100000 0.000000
0.109375 0.100000 0.000000
0.125000 0.100000 0.000000
0.140625 0.100000 0.000000
0.156250 0.100000 0.000000
0.171875 0.100000 0.000000
0.187500 0.100000 0.000000
0.203125 0.100000 0.000000
0.218750 0.100000 0.000000
0.234375 0.100000 0.000000
0.250000 0.100000 0.000000
0.265625 0.100000 0.000000
0.281250 0.100000 0.000000
0.296875 0.100000 0.000000
0.312500 0.100000 0.000000
0.328125 0.100000 0.000000
0.343750 0.100000 0.000000
0.359375 0.100000 0.000000
0.375000 0.100000 0.000000
0.390625 0.100000 0.000000
0.406250 0.100000 0.000000
0.421875 0.100000 0.000000
0.437500 0.100000 0.000000
0.453125 0.100000 0.000000
0.468750 0.100000 0.000000
0.484375 0.100000 0.000000
0.500000 0.100000 0.000000
0.515625 0.100000 0.000000
0.531250 0.100000 0.000000
0.546875 0.100000 0.000000
0.562500 0.100000 0.000000
0.578125 0.100000 0.000000
0.593750 0.100000 0.000000
0.609375 0.100000 0.000000
0.625000 0.100000 0.000000
0.640625 0.100000 0.000000
0.656250 0.100000 0.000000
0.671875 0.100000 0.000000
0.687500 0.100000 0.000000
0.703125 0.100000 0.000000
0.718750 0.100000 0.000000
0.734375 0.100000 0.000000
0.750000 0.100000 0.000000
0.765625 0.100000 0.000000
0.781250 0.100000 0.000000
0.796875 0.100000 0.000000
0.812500 0.100000 0.000000
0.828125 0.100000 0.000000
0.843750 0.100000 0.000000
0.859375 0.100000 0.000000
0.875000 0.100000 0.000000
0.890625 0.100000 0.000000
0.906250 0.100000 0.000000
0.921875 0.100000 0.000000
0.937500 0.100000 0.000000
0.953125 0.100000 0.000000
0.968750 0.100000 0.000000
0.984375 0.100000 0.000000
1.000000 0.100000 0.000000
0.007812 0.100000 0.000000
0.023438 0.100000 0.000000
0.039062 0.100000 0.000000
0.054688 0.100000 0.000000
0.070312 0.100000 0.000000
0.085938 0.100000 0.000000
0.101562 0.100000 0.000000
0.117188 0.100000 0.000000
0.132812 0.100000 0.000000
0.148438 0.100000 0.000000
0.164062 0.100000 0.000000
0.179688 0.100000 0.000000
0.195312 0.100000 0.000000
0.210938 0.100000 0.000000
0.226562 0.100000 0.000000
0.242188 0.100000 0.000000
0.257812 0.100000 0.000000
0.273438 0.100000 0.000000
0.289062 0.100000 0.000000
0.304688 0.100000 0.000000
0.320312 0.100000 0.000000
0.335938 0.100000 0.000000
0.351562 0.100000 0.000000
0.367188 0.100000 0.000000
0.382812 0.100000 0.000000
0.398438 0.100000 0.000000
0.414062 0.100000 0.000000
0.429688 0.100000 0.000000
0.445312 0.100000 0.000000
0.460938 0.100000 0.000000
0.476562 0.100000 0.000000
0.492188 0.100000 0.000000
0.507812 0.100000 0.000000
0.523438 0.100000 0.000000
0.539062 0.100000 0.000000
0.554688 0.100000 0.000000
0.570312 0.100000 0.000000
0.585938 0.100000 0.000000
0.601562 0.100000 0.000000
0.617188 0.100000 0.000000
0.632812 0.100000 0.000000
0.648438 0.100000 0.000000
0.664062 0.100000 0.000000
0.679688 0.100000 0.000000
0.695312 0.100000 0.000000
0.710938 0.100000 0.000000
0.726562 0.100000 0.000000
0.742188 0.100000 0.000000
0.757812 0.100000 0.000000
0.773438 0.100000 0.000000
0.789062 0.100000 0.000000
0.804688 0.100000 0.000000
0.820312 0.100000 0.000000
0.835938 0.100000 0.000000
0.851562 0.100000 0.000000
0.867188 0.100000 0.000000
0.882812 0.100000 0.000000
0.898438 0.100000 0.000000
0.914062 0.100000 0.000000
0.929688 0.100000 0.000000
0.945312 0.100000 0.000000
0.960938 0.100000 0.000000
0.976562 0.100000 0.000000
0.992188 0.100000 0.000000
0.000000 0.050000 0.000000
0.015625 0.050000 0.000000
0.031250 0.050000 0.000000
0.046875 0.050000 0.000000
0.062500 0.050000 0.000000
0.078125 0.050000 0.000000
0.093750 0.050000 0.000000
0.109375 0.050000 0.000000
0.125000 0.050000 0.000000
0.140625 0.050000 0.000000
0.156250 0.050000 0.000000
0.171875 0.050000 0.000000
0.187500 0.050000 0.000000
0.203125 0.050000 0.000000
0.218750 0.050000 0.000000
0.234375 0.050000 0.000000
0.250000 0.050000 0.000000
0.265625 0.050000 0.000000
0.281250 0.050000 0.000000
0.296875 0.050000 0.000000
0.312500 0.050000 0.000000
0.328125 0.050000 0.000000
0.343750 0.050000 0.000000
0.359375 0.050000 0.000000
0.375000 0.050000 0.000000
0.390625 0.050000 0.000000
0.406250 0.050000 0.000000
0.421875 0.050000 0.000000
0.437500 0.050000 0.000000
0.453125 0.050000 0.000000
0.468750 0.050000 0.000000
0.484375 0.050000 0.000000
0.500000 0.050000 0.000000
0.515625 0.050000 0.000000
0.531250 0.050000 0.000000
0.546875 0.050000 0.000000
0.562500 0.050000 0.000000
0.578125 0.050000 0.000000
0.593750 0.050000 0.000000
0.609375 0.050000 0.000000
0.625000 0.050000 0.000000
0.640625 0.050000 0.000000
0.656250 0.050000 0.000000
0.671875 0.050000 0.000000
0.687500 0.050000 0.000000
0.703125 0.050000 0.000000
0.718750 0.050000 0.000000
0.734375 0.050000 0.000000
0.750000 0.050000 0.000000
0.765625 0.050000 0.000000
0.781250 0.050000 0.000000
0.796875 0.050000 0.000000
0.812500 0.050000 0.000000
0.828125 0.050000 0.000000
0.843750 0.050000 0.000000
0.859375 0.050000 0.000000
0.875000 0.050000 0.000000
0.890625 0.050000 0.000000
0.906250 0.050000 0.000000
0.921875 0.050000 0.000000
0.937500 0.050000 0.000000
0.953125 0.050000 0.000000
0.968750 0.050000 0.000000
0.984375 0.050000 0.000000
1.000000 0.050000 0.000000

CELLS 64 576
8 0 1 130 129 65 259 194 258
8 1 2 131 130 66 260 195 259
8 2 3 132 131 67 261 196 260
8 3 4 133 132 68 262 197 261
8 4 5 134 133 69 263 198 262
8 5 6 135 134 70 264 199 263
8 6 7 136 135 71 265 200 264
8 7 8 137 136 72 266 201 265
8 8 9 138 137 73 267 202 266
8 9 10 139 138 74 268 203 267
8 10 11 140 139 75 269 204 268
8 11 12 141 140 76 270 205 269
8 12 13 142 141 77 271 206 270
8 13 14 143 142 78 272 207 271
8 14 15 144 143 79 273 208 272
8 15 16 145 144 80 274 209 273
8 16 17 146 145 81 275 210 274
8 17 18 147 146 82 276 211 275
8 18 19 148 147 83 277 212 276
8 19 20 149 148 84 278 213 277
8 20 21 150 149 85 279 214 278
8 21 22 151 150 86 280 215 279
8 22 23 152 151 87 281 216 280
8 23 24 153 152 88 282 217 281
8 24 25 154 153 89 283 218 282
8 25 26 155 154 90 284 219 283
8 26 27 156 155 91 285 220 284
8 27 28 157 156 92 286 221 285
8 28 29 158 157 93 287 222 286
8 29 30 159 158 94 288 223 287
8 30 31 160 159 95 289 224 288
8 31 32 161 160 96 290 225 289
8 32 33 162 161 97 291 226 290
8 33 34 163 162 98 292 227 291
8 34 35 164 163 99 293 228 292
8 35 36 165 164 100 294 229 293
8 36 37 166 165 101 295 230 294
8 37 38 167 166 102 296 231 295
8 38 39 168 167 103 297 232 296
8 39 40 169 168 104 298 233 297
8 40 41 170 169 105 299 234 298
8 41 42 171 170 106 300 235 299
8 42 43 172 171 107 301 236 300
8 43 44 173 172 108 302 237 301
8 44 45 174 173 109 303 238 302
8 45 46 175 174 110 304 239 303
8 46 47 176 175 111 305 240 304
8 47 48 177 176 112 306 241 305
8 48 49 178 177 113 307 242 306
8 49 50 179 178 114 308 243 307
8 50 51 180 179 115 309 244 308
8 51 52 181 180 116 310 245 309
8 52 53 182 181 117 311 246 310
8 53 54 183 182 118 312 247 311
8 54 55 184 183 119 313 248 312
8 55 56 185 184 120 314 249 313
8 56 57 186 185 121 315 250 314
8 57 58 187 186 122 316 251 315
8 58 59 188 187 123 317 252 316
8 59 60 189 188 124 318 253 317
8 60 61 190 189 125 319 254 318
8 61 62 191 190 126 320 255 319
8 62 63 192 191 127 321 256 320
8 63 64 193 192 128 322 257 321

CELL_TYPES 64
23
23
23
23
23
23
23
23
23
23
23
23
23
23
23
23
23
23
23
23
23
23
23
23
23
23
23
23
23
23
23
23
23
23
23
23
23
23
23
23
23
23
23
23
23
23
23
23
23
23
23
23
23
23
23
23
23
23
23
23
23
23
23
23

POINT_DATA 323
VECTORS displacement float
0.00000000 0.00000000 0.00000000
-0.00002268 -0.00000762 0.00000000
-0.00004479 -0.00002005 0.00000000
-0.00006622 -0.00003901 0.00000000
-0.00008695 -0.00006451 0.00000000
-0.00010701 -0.00009635 0.00000000
-0.00012640 -0.00013433 0.00000000
-0.00014513 -0.00017824 0.00000000
-0.00016321 -0.00022788 0.00000000
-0.00018066 -0.00028304 0.00000000
-0.00019749 -0.00034353 0.00000000
-0.00021370 -0.00040916 0.00000000
-0.00022931 -0.00047973 0.00000000
-0.00024434 -0.00055507 0.00000000
-0.00025879 -0.00063499 0.00000000
-0.00027267 -0.00071931 0.00000000
-0.00028599 -0.00080785 0.00000000
-0.00029878 -0.00090044 0.00000000
-0.00031102 -0.00099693 0.00000000
-0.00032275 -0.00109713 0.00000000
-0.00033397 -0.00120089 0.00000000
-0.00034469 -0.00130805 0.00000000
-0.00035492 -0.00141846 0.00000000
-0.00036468 -0.00153197 0.00000000
-0.00037397 -0.00164843 0.00000000
-0.00038281 -0.00176770 0.00000000
-0.00039121 -0.00188963 0.00000000
-0.00039918 -0.00201410 0.00000000
-0.00040672 -0.00214096 0.00000000
-0.00041386 -0.00227010 0.00000000
-0.00042061 -0.00240137 0.00000000
-0.00042696 -0.00253467 0.00000000
-0.00043295 -0.00266987 0.00000000
-0.00043857 -0.00280686 0.00000000
-0.00044384 -0.00294552 0.00000000
-0.00044877 -0.00308575 0.00000000
-0.00045337 -0.00322745 0.00000000
-0.00045766 -0.00337050 0.00000000
-0.00046163 -0.00351483 0.00000000
-0.00046532 -0.00366032 0.00000000
-0.00046872 -0.00380690 0.00000000
-0.00047185 -0.00395447 0.00000000
-0.00047472 -0.00410295 0.00000000
-0.00047734 -0.00425226 0.00000000
-0.00047972 -0.00440233 0.00000000
-0.00048187 -0.00455308 0.00000000
-0.00048381 -0.00470445 0.00000000
-0.00048555 -0.00485636 0.00000000
-0.00048709 -0.00500876 0.00000000
-0.00048845 -0.00516159 0.00000000
-0.00048964 -0.00531479 0.00000000
-0.00049067 -0.00546831 0.00000000
-0.00049156 -0.00562211 0.00000000
-0.00049231 -0.00577613 0.00000000
-0.00049294 -0.00593035 0.00000000
-0.00049345 -0.00608472 0.00000000
-0.00049386 -0.00623920 0.00000000
-0.00049418 -0.00639378 0.00000000
-0.00049442 -0.00654841 0.00000000
-0.00049459 -0.00670308 0.00000000
-0.00049470 -0.00685778 0.00000000
-0.00049477 -0.00701247 0.00000000
-0.00049481 -0.00716716 0.00000000
-0.00049482 -0.00732183 0.00000000
-0.00049482 -0.00747647 0.00000000
-0.00001140 -0.00000293 0.00000000
-0.00003382 -0.00001297 0.00000000
-0.00005559 -0.00002870 0.00000000
-0.00007667 -0.00005095 0.00000000
-0.00009707 -0.00007965 0.00000000
-0.00011679 -0.00011459 0.00000000
-0.00013584 -0.00015556 0.00000000
-0.00015425 -0.00020236 0.00000000
-0.00017201 -0.00025478 0.00000000
-0.00018915 -0.00031263 0.00000000
-0.00020567 -0.00037571 0.00000000
-0.00022158 -0.00044384 0.00000000
-0.00023690 -0.00051682 0.00000000
-0.00025163 -0.00059447 0.00000000
-0.00026580 -0.00067661 0.00000000
-0.00027940 -0.00076306 0.00000000
-0.00029245 -0.00085365 0.00000000
-0.00030497 -0.00094821 0.00000000
-0.00031695 -0.00104657 0.00000000
-0.00032842 -0.00114857 0.00000000
-0.00033939 -0.00125406 0.00000000
-0.00034987 -0.00136286 0.00000000
-0.00035986 -0.00147484 0.00000000
-0.00036938 -0.00158984 0.00000000
-0.00037845 -0.00170772 0.00000000
-0.00038706 -0.00182834 0.00000000
-0.00039524 -0.00195156 0.00000000
-0.00040300 -0.00207724 0.00000000
-0.00041034 -0.00220525 0.00000000
-0.00041728 -0.00233547 0.00000000
-0.00042383 -0.00246778 0.00000000
-0.00043000 -0.00260204 0.00000000
-0.00043580 -0.00273815 0.00000000
-0.00044125 -0.00287598 0.00000000
-0.00044635 -0.00301545 0.00000000
-0.00045111 -0.00315642 0.00000000
-0.00045555 -0.00329881 0.00000000
-0.00045968 -0.00344251 0.00000000
-0.00046351 -0.00358743 0.00000000
-0.00046705 -0.00373348 0.00000000
-0.00047032 -0.00388056 0.00000000
-0.00047331 -0.00402860 0.00000000
-0.00047606 -0.00417750 0.00000000
-0.00047856 -0.00432720 0.00000000
-0.00048082 -0.00447762 0.00000000
-0.00048287 -0.00462869 0.00000000
-0.00048470 -0.00478034 0.00000000
-0.00048634 -0.00493250 0.00000000
-0.00048779 -0.00508512 0.00000000
-0.00048907 -0.00523814 0.00000000
-0.00049018 -0.00539151 0.00000000
-0.00049114 -0.00554518 0.00000000
-0.00049195 -0.00569909 0.00000000
-0.00049264 -0.00585322 0.00000000
-0.00049320 -0.00600752 0.00000000
-0.00049366 -0.00616195 0.00000000
-0.00049403 -0.00631648 0.00000000
-0.00049430 -0.00647109 0.00000000
-0.00049451 -0.00662574 0.00000000
-0.00049465 -0.00678043 0.00000000
-0.00049474 -0.00693513 0.00000000
-0.00049479 -0.00708982 0.00000000
-0.00049482 -0.00724450 0.00000000
-0.00049482 -0.00739915 0.00000000
0.00000000 0.00000000 0.00000000
0.00002268 -0.00000762 0.00000000
0.00004479 -0.00002005 0.00000000
0.00006622 -0.00003901 0.00000000
0.00008695 -0.00006451 0.00000000
0.00010701 -0.00009635 0.00000000
0.00012640 -0.00013433 0.00000000
0.00014513 -0.00017824 0.00000000
0.00016321 -0.00022788 0.00000000
0.00018066 -0.00028304 0.00000000
0.00019749 -0.00034353 0.00000000
0.00021370 -0.00040916 0.00000000
0.00022931 -0.00047973 0.00000000
0.00024434 -0.00055507 0.00000000
0.00025879 -0.00063499 0.00000000
0.00027267 -0.00071931 0.00000000
0.00028599 -0.00080785 0.00000000
0.00029878 -0.00090044 0.00000000
0.00031102 -0.00099693 0.00000000
0.00032275 -0.00109713 0.00000000
0.00033397 -0.00120089 0.00000000
0.00034469 -0.00130805 0.00000000
0.00035492 -0.00141846 0.00000000
0.00036468 -0.00153197 0.00000000
0.00037397 -0.00164843 0.00000000
0.00038281 -0.00176770 0.00000000
0.00039121 -0.00188963 0.00000000
0.00039918 -0.00201410 0.00000000
0.00040672 -0.00214096 0.00000000
0.00041386 -0.00227010 0.00000000
0.00042061 -0.00240137 0.00000000
0.00042696 -0.00253467 0.00000000
0.00043295 -0.00266987 0.00000000
0.00043857 -0.00280686 0.00000000
0.00044384 -0.00294552 0.00000000
0.00044877 -0.00308575 0.00000000
0.00045337 -0.00322745 0.00000000
0.00045766 -0.00337050 0.00000000
0.00046163 -0.00351483 0.00000000
0.00046532 -0.00366032 0.00000000
0.00046872 -0.00380690 0.00000000
0.00047185 -0.00395447 0.00000000
0.00047472 -0.00410295 0.00000000
0.00047734 -0.00425226 0.00000000
0.00047972 -0.00440233 0.00000000
0.00048187 -0.00455308 0.00000000
0.00048381 -0.00470445 0.00000000
0.00048555 -0.00485636 0.00000000
0.00048709 -0.00500876 0.00000000
0.00048845 -0.00516159 0.00000000
0.00048964 -0.00531479 0.00000000
0.00049067 -0.00546831 0.00000000
0.00049156 -0.00562211 0.00000000
0.00049231 -0.00577613 0.00000000
0.00049294 -0.00593035 0.00000000
0.00049345 -0.00608472 0.00000000
0.00049386 -0.00623920 0.00000000
0.00049418 -0.00639378 0.00000000
0.00049442 -0.00654841 0.00000000
0.00049459 -0.00670308 0.00000000
0.00049470 -0.00685778 0.00000000
0.00049477 -0.00701247 0.00000000
0.00049481 -0.00716716 0.00000000
0.00049482 -0.00732183 0.00000000
0.00049482 -0.00747647 0.00000000
0.00001140 -0.00000293 0.00000000
0.00003382 -0.00001297 0.00000000
0.00005559 -0.00002870 0.00000000
0.00007667 -0.00005095 0.00000000
0.00009707 -0.00007965 0.00000000
0.00011679 -0.00011459 0.00000000
0.00013584 -0.00015556 0.00000000
0.00015425 -0.00020236 0.00000000
0.00017201 -0.00025478 0.00000000
0.00018915 -0.00031263 0.00000000
0.00020567 -0.00037571 0.00000000
0.00022158 -0.00044384 0.00000000
0.00023690 -0.00051682 0.00000000
0.00025163 -0.00059447 0.00000000
0.00026580 -0.00067661 0.00000000
0.00027940 -0.00076306 0.00000000
0.00029245 -0.00085365 0.00000000
0.00030497 -0.00094821 0.00000000
0.00031695 -0.00104657 0.00000000
0.00032842 -0.00114857 0.00000000
0.00033939 -0.00125406 0.00000000
0.00034987 -0.00136286 0.00000000
0.00035986 -0.00147484 0.00000000
0.00036938 -0.00158984 0.00000000
0.00037845 -0.00170772 0.00000000
0.00038706 -0.00182834 0.00000000
0.00039524 -0.00195156 0.00000000
0.00040300 -0.00207724 0.00000000
0.00041034 -0.00220525 0.00000000
0.00041728 -0.00233547 0.00000000
0.00042383 -0.00246778 0.00000000
0.00043000 -0.00260204 0.00000000
0.00043580 -0.00273815 0.00000000
0.00044125 -0.00287598 0.00000000
0.00044635 -0.00301545 0.00000000
0.00045111 -0.00315642 0.00000000
0.00045555 -0.00329881 0.00000000
0.00045968 -0.00344251 0.00000000
0.00046351 -0.00358743 0.00000000
0.00046705 -0.00373348 0.00000000
0.00047032 -0.00388056 0.00000000
0.00047331 -0.00402860 0.00000000
0.00047606 -0.00417750 0.00000000
0.00047856 -0.00432720 0.00000000
0.00048082 -0.00447762 0.00000000
0.00048287 -0.00462869 0.00000000
0.00048470 -0.00478034 0.00000000
0.00048634 -0.00493250 0.00000000
0.00048779 -0.00508512 0.00000000
0.00048907 -0.00523814 0.00000000
0.00049018 -0.00539151 0.00000000
0.00049114 -0.00554518 0.00000000
0.00049195 -0.00569909 0.00000000
0.00049264 -0.00585322 0.00000000
0.00049320 -0.00600752 0.00000000
0.00049366 -0.00616195 0.00000000
0.00049403 -0.00631648 0.00000000
0.00049430 -0.00647109 0.00000000
0.00049451 -0.00662574 0.00000000
0.00049465 -0.00678043 0.00000000
0.00049474 -0.00693513 0.00000000
0.00049479 -0.00708982 0.00000000
0.00049482 -0.00724450 0.00000000
0.00049482 -0.00739915 0.00000000
0.00000000 0.00000000 0.00000000
-0.00000000 -0.00000408 0.00000000
-0.00000000 -0.00001623 0.00000000
-0.00000000 -0.00003527 0.00000000
-0.00000000 -0.00006088 0.00000000
-0.00000000 -0.00009285 0.00000000
-0.00000000 -0.00013094 0.00000000
-0.00000000 -0.00017497 0.00000000
-0.00000000 -0.00022472 0.00000000
-0.00000000 -0.00027999 0.00000000
-0.00000000 -0.00034059 0.00000000
-0.00000000 -0.00040633 0.00000000
-0.00000000 -0.00047701 0.00000000
-0.00000000 -0.00055245 0.00000000
-0.00000000 -0.00063247 0.00000000
-0.00000000 -0.00071689 0.00000000
-0.00000000 -0.00080553 0.00000000
-0.00000000 -0.00089822 0.00000000
-0.00000000 -0.00099479 0.00000000
-0.00000000 -0.00109509 0.00000000
-0.00000000 -0.00119894 0.00000000
-0.00000000 -0.00130619 0.00000000
-0.00000000 -0.00141669 0.00000000
-0.00000000 -0.00153028 0.00000000
-0.00000000 -0.00164682 0.00000000
-0.00000000 -0.00176617 0.00000000
-0.00000000 -0.00188818 0.00000000
-0.00000000 -0.00201272 0.00000000
-0.00000000 -0.00213966 0.00000000
-0.00000000 -0.00226886 0.00000000
-0.00000000 -0.00240021 0.00000000
-0.00000000 -0.00253357 0.00000000
-0.00000000 -0.00266884 0.00000000
-0.00000000 -0.00280589 0.00000000
-0.00000000 -0.00294461 0.00000000
-0.00000000 -0.00308490 0.00000000
-0.00000000 -0.00322666 0.00000000
-0.00000000 -0.00336977 0.00000000
-0.00000000 -0.00351414 0.00000000
-0.00000000 -0.00365969 0.00000000
-0.00000000 -0.00380632 0.00000000
-0.00000000 -0.00395393 0.00000000
-0.00000000 -0.00410246 0.00000000
-0.00000000 -0.00425182 0.00000000
-0.00000000 -0.00440193 0.00000000
-0.00000000 -0.00455272 0.00000000
-0.00000000 -0.00470412 0.00000000
-0.00000000 -0.00485607 0.00000000
-0.00000000 -0.00500850 0.00000000
-0.00000000 -0.00516136 0.00000000
-0.00000000 -0.00531459 0.00000000
-0.00000000 -0.00546814 0.00000000
-0.00000000 -0.00562196 0.00000000
-0.00000000 -0.00577601 0.00000000
-0.00000000 -0.00593025 0.00000000
-0.00000000 -0.00608463 0.00000000
-0.00000000 -0.00623914 0.00000000
-0.00000000 -0.00639373 0.00000000
-0.00000000 -0.00654837 0.00000000
-0.00000000 -0.00670306 0.00000000
-0.00000000 -0.00685776 0.00000000
-0.00000000 -0.00701246 0.00000000
-0.00000000 -0.00716716 0.00000000
-0.00000000 -0.00732183 0.00000000
-0.00000000 -0.00747647 0.00000000

