# vtk DataFile Version 2.0
Written using Python VTK writer (Taiwo)
ASCII

DATASET UNSTRUCTURED_GRID
POINTS 43 float
0.000000 0.000000 0.000000
0.125000 0.000000 0.000000
0.250000 0.000000 0.000000
0.375000 0.000000 0.000000
0.500000 0.000000 0.000000
0.625000 0.000000 0.000000
0.750000 0.000000 0.000000
0.875000 0.000000 0.000000
1.000000 0.000000 0.000000
0.062500 0.000000 0.000000
0.187500 0.000000 0.000000
0.312500 0.000000 0.000000
0.437500 0.000000 0.000000
0.562500 0.000000 0.000000
0.687500 0.000000 0.000000
0.812500 0.000000 0.000000
0.937500 0.000000 0.000000
0.000000 0.100000 0.000000
0.125000 0.100000 0.000000
0.250000 0.100000 0.000000
0.375000 0.100000 0.000000
0.500000 0.100000 0.000000
0.625000 0.100000 0.000000
0.750000 0.100000 0.000000
0.875000 0.100000 0.000000
1.000000 0.100000 0.000000
0.062500 0.100000 0.000000
0.187500 0.100000 0.000000
0.312500 0.100000 0.000000
0.437500 0.100000 0.000000
0.562500 0.100000 0.000000
0.687500 0.100000 0.000000
0.812500 0.100000 0.000000
0.937500 0.100000 0.000000
0.000000 0.050000 0.000000
0.125000 0.050000 0.000000
0.250000 0.050000 0.000000
0.375000 0.050000 0.000000
0.500000 0.050000 0.000000
0.625000 0.050000 0.000000
0.750000 0.050000 0.000000
0.875000 0.050000 0.000000
1.000000 0.050000 0.000000

CELLS 8 72
8 0 1 18 17 9 35 26 34
8 1 2 19 18 10 36 27 35
8 2 3 20 19 11 37 28 36
8 3 4 21 20 12 38 29 37
8 4 5 22 21 13 39 30 38
8 5 6 23 22 14 40 31 39
8 6 7 24 23 15 41 32 40
8 7 8 25 24 16 42 33 41

CELL_TYPES 8
23
23
23
23
23
23
23
23

POINT_DATA 43
VECTORS displacement float
0.00000000 0.00000000 0.00000000
-0.00016254 -0.00022629 0.00000000
-0.00028554 -0.00080316 0.00000000
-0.00037346 -0.00164191 0.00000000
-0.00043245 -0.00266138 0.00000000
-0.00046822 -0.00379667 0.00000000
-0.00048659 -0.00499692 0.00000000
-0.00049336 -0.00622590 0.00000000
-0.00049433 -0.00746186 0.00000000
-0.00008573 -0.00006257 0.00000000
-0.00022826 -0.00047650 0.00000000
-0.00033298 -0.00119527 0.00000000
-0.00040583 -0.00213343 0.00000000
-0.00045256 -0.00321806 0.00000000
-0.00047900 -0.00439127 0.00000000
-0.00049093 -0.00560951 0.00000000
-0.00049416 -0.00684380 0.00000000
0.00000000 0.00000000 0.00000000
0.00016254 -0.00022629 0.00000000
0.00028554 -0.00080316 0.00000000
0.00037346 -0.00164191 0.00000000
0.00043245 -0.00266138 0.00000000
0.00046822 -0.00379667 0.00000000
0.00048659 -0.00499692 0.00000000
0.00049336 -0.00622590 0.00000000
0.00049433 -0.00746186 0.00000000
0.00008573 -0.00006257 0.00000000
0.00022826 -0.00047650 0.00000000
0.00033298 -0.00119527 0.00000000
0.00040583 -0.00213343 0.00000000
0.00045256 -0.00321806 0.00000000
0.00047900 -0.00439127 0.00000000
0.00049093 -0.00560951 0.00000000
0.00049416 -0.00684380 0.00000000
0.00000000 0.00000000 0.00000000
-0.00000000 -0.00022210 0.00000000
-0.00000000 -0.00080111 0.00000000
-0.00000000 -0.00164024 0.00000000
-0.00000000 -0.00266038 0.00000000
-0.00000000 -0.00379609 0.00000000
-0.00000000 -0.00499667 0.00000000
-0.00000000 -0.00622585 0.00000000
-0.00000000 -0.00746187 0.00000000

