# vtk DataFile Version 2.0
Written using Python VTK writer (Taiwo)
ASCII

DATASET UNSTRUCTURED_GRID
POINTS 83 float
0.000000 0.000000 0.000000
0.062500 0.000000 0.000000
0.125000 0.000000 0.000000
0.187500 0.000000 0.000000
0.250000 0.000000 0.000000
0.312500 0.000000 0.000000
0.375000 0.000000 0.000000
0.437500 0.000000 0.000000
0.500000 0.000000 0.000000
0.562500 0.000000 0.000000
0.625000 0.000000 0.000000
0.687500 0.000000 0.000000
0.750000 0.000000 0.000000
0.812500 0.000000 0.000000
0.875000 0.000000 0.000000
0.937500 0.000000 0.000000
1.000000 0.000000 0.000000
0.031250 0.000000 0.000000
0.093750 0.000000 0.000000
0.156250 0.000000 0.000000
0.218750 0.000000 0.000000
0.281250 0.000000 0.000000
0.343750 0.000000 0.000000
0.406250 0.000000 0.000000
0.468750 0.000000 0.000000
0.531250 0.000000 0.000000
0.593750 0.000000 0.000000
0.656250 0.000000 0.000000
0.718750 0.000000 0.000000
0.781250 0.000000 0.000000
0.843750 0.000000 0.000000
0.906250 0.000000 0.000000
0.968750 0.000000 0.000000
0.000000 0.100000 0.000000
0.062500 0.100000 0.000000
0.125000 0.100000 0.000000
0.187500 0.100000 0.000000
0.250000 0.100000 0.000000
0.312500 0.100000 0.000000
0.375000 0.100000 0.000000
0.437500 0.100000 0.000000
0.500000 0.100000 0.000000
0.562500 0.100000 0.000000
0.625000 0.100000 0.000000
0.687500 0.100000 0.000000
0.750000 0.100000 0.000000
0.812500 0.100000 0.000000
0.875000 0.100000 0.000000
0.937500 0.100000 0.000000
1.000000 0.100000 0.000000
0.031250 0.100000 0.000000
0.093750 0.100000 0.000000
0.156250 0.100000 0.000000
0.218750 0.100000 0.000000
0.281250 0.100000 0.000000
0.343750 0.100000 0.000000
0.406250 0.100000 0.000000
0.468750 0.100000 0.000000
0.531250 0.100000 0.000000
0.593750 0.100000 0.000000
0.656250 0.100000 0.000000
0.718750 0.100000 0.000000
0.781250 0.100000 0.000000
0.843750 0.100000 0.000000
0.906250 0.100000 0.000000
0.968750 0.100000 0.000000
0.000000 0.050000 0.000000
0.062500 0.050000 0.000000
0.125000 0.050000 0.000000
0.187500 0.050000 0.000000
0.250000 0.050000 0.000000
0.312500 0.050000 0.000000
0.375000 0.050000 0.000000
0.437500 0.050000 0.000000
0.500000 0.050000 0.000000
0.562500 0.050000 0.000000
0.625000 0.050000 0.000000
0.687500 0.050000 0.000000
0.750000 0.050000 0.000000
0.812500 0.050000 0.000000
0.875000 0.050000 0.000000
0.937500 0.050000 0.000000
1.000000 0.050000 0.000000

CELLS 16 144
8 0 1 34 33 17 67 50 66
8 1 2 35 34 18 68 51 67
8 2 3 36 35 19 69 52 68
8 3 4 37 36 20 70 53 69
8 4 5 38 37 21 71 54 70
8 5 6 39 38 22 72 55 71
8 6 7 40 39 23 73 56 72
8 7 8 41 40 24 74 57 73
8 8 9 42 41 25 75 58 74
8 9 10 43 42 26 76 59 75
8 10 11 44 43 27 77 60 76
8 11 12 45 44 28 78 61 77
8 12 13 46 45 29 79 62 78
8 13 14 47 46 30 80 63 79
8 14 15 48 47 31 81 64 80
8 15 16 49 48 32 82 65 81

CELL_TYPES 16
23
23
23
23
23
23
23
23
23
23
23
23
23
23
23
23

POINT_DATA 83
VECTORS displacement float
0.00000000 0.00000000 0.00000000
-0.00008669 -0.00006485 0.00000000
-0.00016304 -0.00022720 0.00000000
-0.00022912 -0.00047895 0.00000000
-0.00028581 -0.00080676 0.00000000
-0.00033378 -0.00119955 0.00000000
-0.00037378 -0.00164683 0.00000000
-0.00040654 -0.00213910 0.00000000
-0.00043276 -0.00266775 0.00000000
-0.00045318 -0.00322508 0.00000000
-0.00046853 -0.00380428 0.00000000
-0.00047953 -0.00439946 0.00000000
-0.00048690 -0.00500564 0.00000000
-0.00049137 -0.00561875 0.00000000
-0.00049367 -0.00623560 0.00000000
-0.00049452 -0.00685394 0.00000000
-0.00049464 -0.00747240 0.00000000
-0.00004453 -0.00001893 0.00000000
-0.00012617 -0.00013415 0.00000000
-0.00019726 -0.00034280 0.00000000
-0.00025856 -0.00063406 0.00000000
-0.00031080 -0.00099571 0.00000000
-0.00035470 -0.00141699 0.00000000
-0.00039099 -0.00188790 0.00000000
-0.00042039 -0.00239938 0.00000000
-0.00044363 -0.00294328 0.00000000
-0.00046143 -0.00351233 0.00000000
-0.00047451 -0.00410020 0.00000000
-0.00048361 -0.00470145 0.00000000
-0.00048944 -0.00531155 0.00000000
-0.00049274 -0.00592687 0.00000000
-0.00049422 -0.00654469 0.00000000
-0.00049462 -0.00716321 0.00000000
0.00000000 0.00000000 0.00000000
0.00008669 -0.00006485 0.00000000
0.00016304 -0.00022720 0.00000000
0.00022912 -0.00047895 0.00000000
0.00028581 -0.00080676 0.00000000
0.00033378 -0.00119955 0.00000000
0.00037378 -0.00164683 0.00000000
0.00040654 -0.00213910 0.00000000
0.00043276 -0.00266775 0.00000000
0.00045318 -0.00322508 0.00000000
0.00046853 -0.00380428 0.00000000
0.00047953 -0.00439946 0.00000000
0.00048690 -0.00500564 0.00000000
0.00049137 -0.00561875 0.00000000
0.00049367 -0.00623560 0.00000000
0.00049452 -0.00685394 0.00000000
0.00049464 -0.00747240 0.00000000
0.00004453 -0.00001893 0.00000000
0.00012617 -0.00013415 0.00000000
0.00019726 -0.00034280 0.00000000
0.00025856 -0.00063406 0.00000000
0.00031080 -0.00099571 0.00000000
0.00035470 -0.00141699 0.00000000
0.00039099 -0.00188790 0.00000000
0.00042039 -0.00239938 0.00000000
0.00044363 -0.00294328 0.00000000
0.00046143 -0.00351233 0.00000000
0.00047451 -0.00410020 0.00000000
0.00048361 -0.00470145 0.00000000
0.00048944 -0.00531155 0.00000000
0.00049274 -0.00592687 0.00000000
0.00049422 -0.00654469 0.00000000
0.00049462 -0.00716321 0.00000000
0.00000000 0.00000000 0.00000000
0.00000000 -0.00006032 0.00000000
0.00000000 -0.00022424 0.00000000
0.00000000 -0.00047619 0.00000000
0.00000000 -0.00080446 0.00000000
0.00000000 -0.00119760 0.00000000
0.00000000 -0.00164522 0.00000000
0.00000000 -0.00213780 0.00000000
0.00000000 -0.00266672 0.00000000
0.00000000 -0.00322429 0.00000000
0.00000000 -0.00380370 0.00000000
0.00000000 -0.00439906 0.00000000
0.00000000 -0.00500539 0.00000000
0.00000000 -0.00561861 0.00000000
0.00000000 -0.00623554 0.00000000
0.00000000 -0.00685393 0.00000000
0.00000000 -0.00747240 0.00000000

