# vtk DataFile Version 2.0
Written using Python VTK writer (Taiwo)
ASCII

DATASET UNSTRUCTURED_GRID
POINTS 163 float
0.000000 0.000000 0.000000
0.031250 0.000000 0.000000
0.062500 0.000000 0.000000
0.093750 0.000000 0.000000
0.125000 0.000000 0.000000
0.156250 0.000000 0.000000
0.187500 0.000000 0.000000
0.218750 0.000000 0.000000
0.250000 0.000000 0.000000
0.281250 0.000000 0.000000
0.312500 0.000000 0.000000
0.343750 0.000000 0.000000
0.375000 0.000000 0.000000
0.406250 0.000000 0.000000
0.437500 0.000000 0.000000
0.468750 0.000000 0.000000
0.500000 0.000000 0.000000
0.531250 0.000000 0.000000
0.562500 0.000000 0.000000
0.593750 0.000000 0.000000
0.625000 0.000000 0.000000
0.656250 0.000000 0.000000
0.687500 0.000000 0.000000
0.718750 0.000000 0.000000
0.750000 0.000000 0.000000
0.781250 0.000000 0.000000
0.812500 0.000000 0.000000
0.843750 0.000000 0.000000
0.875000 0.000000 0.000000
0.906250 0.000000 0.000000
0.937500 0.000000 0.000000
0.968750 0.000000 0.000000
1.000000 0.000000 0.000000
0.015625 0.000000 0.000000
0.046875 0.000000 0.000000
0.078125 0.000000 0.000000
0.109375 0.000000 0.000000
0.140625 0.000000 0.000000
0.171875 0.000000 0.000000
0.203125 0.000000 0.000000
0.234375 0.000000 0.000000
0.265625 0.000000 0.000000
0.296875 0.000000 0.000000
0.328125 0.000000 0.000000
0.359375 0.000000 0.000000
0.390625 0.000000 0.000000
0.421875 0.000000 0.000000
0.453125 0.000000 0.000000
0.484375 0.000000 0.000000
0.515625 0.000000 0.000000
0.546875 0.000000 0.000000
0.578125 0.000000 0.000000
0.609375 0.000000 0.000000
0.640625 0.000000 0.000000
0.671875 0.000000 0.000000
0.703125 0.000000 0.000000
0.734375 0.000000 0.000000
0.765625 0.000000 0.000000
0.796875 0.000000 0.000000
0.828125 0.000000 0.000000
0.859375 0.000000 0.000000
0.890625 0.000000 0.000000
0.921875 0.000000 0.000000
0.953125 0.000000 0.000000
0.984375 0.000000 0.000000
0.000000 0.100000 0.000000
0.031250 0.100000 0.000000
0.062500 0.100000 0.000000
0.093750 0.100000 0.000000
0.125000 0.100000 0.000000
0.156250 0.100000 0.000000
0.187500 0.100000 0.000000
0.218750 0.100000 0.000000
0.250000 0.100000 0.000000
0.281250 0.100000 0.000000
0.312500 0.100000 0.000000
0.343750 0.100000 0.000000
0.375000 0.100000 0.000000
0.406250 0.100000 0.000000
0.437500 0.100000 0.000000
0.468750 0.100000 0.000000
0.500000 0.100000 0.000000
0.531250 0.100000 0.000000
0.562500 0.100000 0.000000
0.593750 0.100000 0.000000
0.625000 0.100000 0.000000
0.656250 0.100000 0.000000
0.687500 0.100000 0.000000
0.718750 0.100000 0.000000
0.750000 0.100000 0.000000
0.781250 0.100000 0.000000
0.812500 0.100000 0.000000
0.843750 0.100000 0.000000
0.875000 0.100000 0.000000
0.906250 0.100000 0.000000
0.937500 0.100000 0.000000
0.968750 0.100000 0.000000
1.000000 0.100000 0.000000
0.015625 0.100000 0.000000
0.046875 0.100000 0.000000
0.078125 0.100000 0.000000
0.109375 0.100000 0.000000
0.140625 0.100000 0.000000
0.171875 0.100000 0.000000
0.203125 0.100000 0.000000
0.234375 0.100000 0.000000
0.265625 0.100000 0.000000
0.296875 0.100000 0.000000
0.328125 0.100000 0.000000
0.359375 0.100000 0.000000
0.390625 0.100000 0.000000
0.421875 0.100000 0.000000
0.453125 0.100000 0.000000
0.484375 0.100000 0.000000
0.515625 0.100000 0.000000
0.546875 0.100000 0.000000
0.578125 0.100000 0.000000
0.609375 0.100000 0.000000
0.640625 0.100000 0.000000
0.671875 0.100000 0.000000
0.703125 0.100000 0.000000
0.734375 0.100000 0.000000
0.765625 0.100000 0.000000
0.796875 0.100000 0.000000
0.828125 0.100000 0.000000
0.859375 0.100000 0.000000
0.890625 0.100000 0.000000
0.921875 0.100000 0.000000
0.953125 0.100000 0.000000
0.984375 0.100000 0.000000
0.000000 0.050000 0.000000
0.031250 0.050000 0.000000
0.062500 0.050000 0.000000
0.093750 0.050000 0.000000
0.125000 0.050000 0.000000
0.156250 0.050000 0.000000
0.187500 0.050000 0.000000
0.218750 0.050000 0.000000
0.250000 0.050000 0.000000
0.281250 0.050000 0.000000
0.312500 0.050000 0.000000
0.343750 0.050000 0.000000
0.375000 0.050000 0.000000
0.406250 0.050000 0.000000
0.437500 0.050000 0.000000
0.468750 0.050000 0.000000
0.500000 0.050000 0.000000
0.531250 0.050000 0.000000
0.562500 0.050000 0.000000
0.593750 0.050000 0.000000
0.625000 0.050000 0.000000
0.656250 0.050000 0.000000
0.687500 0.050000 0.000000
0.718750 0.050000 0.000000
0.750000 0.050000 0.000000
0.781250 0.050000 0.000000
0.812500 0.050000 0.000000
0.843750 0.050000 0.000000
0.875000 0.050000 0.000000
0.906250 0.050000 0.000000
0.937500 0.050000 0.000000
0.968750 0.050000 0.000000
1.000000 0.050000 0.000000

CELLS 32 288
8 0 1 66 65 33 131 98 130
8 1 2 67 66 34 132 99 131
8 2 3 68 67 35 133 100 132
8 3 4 69 68 36 134 101 133
8 4 5 70 69 37 135 102 134
8 5 6 71 70 38 136 103 135
8 6 7 72 71 39 137 104 136
8 7 8 73 72 40 138 105 137
8 8 9 74 73 41 139 106 138
8 9 10 75 74 42 140 107 139
8 10 11 76 75 43 141 108 140
8 11 12 77 76 44 142 109 141
8 12 13 78 77 45 143 110 142
8 13 14 79 78 46 144 111 143
8 14 15 80 79 47 145 112 144
8 15 16 81 80 48 146 113 145
8 16 17 82 81 49 147 114 146
8 17 18 83 82 50 148 115 147
8 18 19 84 83 51 149 116 148
8 19 20 85 84 52 150 117 149
8 20 21 86 85 53 151 118 150
8 21 22 87 86 54 152 119 151
8 22 23 88 87 55 153 120 152
8 23 24 89 88 56 154 121 153
8 24 25 90 89 57 155 122 154
8 25 26 91 90 58 156 123 155
8 26 27 92 91 59 157 124 156
8 27 28 93 92 60 158 125 157
8 28 29 94 93 61 159 126 158
8 29 30 95 94 62 160 127 159
8 30 31 96 95 63 161 128 160
8 31 32 97 96 64 162 129 161

CELL_TYPES 32
23
23
23
23
23
23
23
23
23
23
23
23
23
23
23
23
23
23
23
23
23
23
23
23
23
23
23
23
23
23
23
23

POINT_DATA 163
VECTORS displacement float
0.00000000 0.00000000 0.00000000
-0.00004472 -0.00002036 0.00000000
-0.00008691 -0.00006441 0.00000000
-0.00012635 -0.00013424 0.00000000
-0.00016316 -0.00022775 0.00000000
-0.00019744 -0.00034337 0.00000000
-0.00022926 -0.00047954 0.00000000
-0.00025874 -0.00063476 0.00000000
-0.00028594 -0.00080759 0.00000000
-0.00031097 -0.00099663 0.00000000
-0.00033392 -0.00120056 0.00000000
-0.00035487 -0.00141811 0.00000000
-0.00037392 -0.00164804 0.00000000
-0.00039116 -0.00188921 0.00000000
-0.00040667 -0.00214051 0.00000000
-0.00042056 -0.00240089 0.00000000
-0.00043290 -0.00266935 0.00000000
-0.00044379 -0.00294497 0.00000000
-0.00045332 -0.00322686 0.00000000
-0.00046158 -0.00351421 0.00000000
-0.00046867 -0.00380625 0.00000000
-0.00047467 -0.00410227 0.00000000
-0.00047967 -0.00440162 0.00000000
-0.00048376 -0.00470371 0.00000000
-0.00048704 -0.00500799 0.00000000
-0.00048959 -0.00531398 0.00000000
-0.00049151 -0.00562127 0.00000000
-0.00049288 -0.00592948 0.00000000
-0.00049381 -0.00623830 0.00000000
-0.00049437 -0.00654748 0.00000000
-0.00049465 -0.00685682 0.00000000
-0.00049476 -0.00716617 0.00000000
-0.00049477 -0.00747545 0.00000000
-0.00002263 -0.00000670 0.00000000
-0.00006616 -0.00003910 0.00000000
-0.00010696 -0.00009626 0.00000000
-0.00014507 -0.00017813 0.00000000
-0.00018061 -0.00028289 0.00000000
-0.00021365 -0.00040898 0.00000000
-0.00024429 -0.00055486 0.00000000
-0.00027262 -0.00071906 0.00000000
-0.00029872 -0.00090017 0.00000000
-0.00032270 -0.00109682 0.00000000
-0.00034464 -0.00130771 0.00000000
-0.00036463 -0.00153160 0.00000000
-0.00038276 -0.00176730 0.00000000
-0.00039912 -0.00201366 0.00000000
-0.00041381 -0.00226963 0.00000000
-0.00042691 -0.00253417 0.00000000
-0.00043852 -0.00280632 0.00000000
-0.00044872 -0.00308519 0.00000000
-0.00045760 -0.00336991 0.00000000
-0.00046527 -0.00365969 0.00000000
-0.00047180 -0.00395381 0.00000000
-0.00047728 -0.00425157 0.00000000
-0.00048182 -0.00455236 0.00000000
-0.00048549 -0.00485560 0.00000000
-0.00048840 -0.00516080 0.00000000
-0.00049062 -0.00546749 0.00000000
-0.00049226 -0.00577528 0.00000000
-0.00049340 -0.00608383 0.00000000
-0.00049413 -0.00639286 0.00000000
-0.00049454 -0.00670214 0.00000000
-0.00049472 -0.00701150 0.00000000
-0.00049477 -0.00732082 0.00000000
0.00000000 0.00000000 0.00000000
0.00004472 -0.00002036 0.00000000
0.00008691 -0.00006441 0.00000000
0.00012635 -0.00013424 0.00000000
0.00016316 -0.00022775 0.00000000
0.00019744 -0.00034337 0.00000000
0.00022926 -0.00047954 0.00000000
0.00025874 -0.00063476 0.00000000
0.00028594 -0.00080759 0.00000000
0.00031097 -0.00099663 0.00000000
0.00033392 -0.00120056 0.00000000
0.00035487 -0.00141811 0.00000000
0.00037392 -0.00164804 0.00000000
0.00039116 -0.00188921 0.00000000
0.00040667 -0.00214051 0.00000000
0.00042056 -0.00240089 0.00000000
0.00043290 -0.00266935 0.00000000
0.00044379 -0.00294497 0.00000000
0.00045332 -0.00322686 0.00000000
0.00046158 -0.00351421 0.00000000
0.00046867 -0.00380625 0.00000000
0.00047467 -0.00410227 0.00000000
0.00047967 -0.00440162 0.00000000
0.00048376 -0.00470371 0.00000000
0.00048704 -0.00500799 0.00000000
0.00048959 -0.00531398 0.00000000
0.00049151 -0.00562127 0.00000000
0.00049288 -0.00592948 0.00000000
0.00049381 -0.00623830 0.00000000
0.00049437 -0.00654748 0.00000000
0.00049465 -0.00685682 0.00000000
0.00049476 -0.00716617 0.00000000
0.00049477 -0.00747545 0.00000000
0.00002263 -0.00000670 0.00000000
0.00006616 -0.00003910 0.00000000
0.00010696 -0.00009626 0.00000000
0.00014507 -0.00017813 0.00000000
0.00018061 -0.00028289 0.00000000
0.00021365 -0.00040898 0.00000000
0.00024429 -0.00055486 0.00000000
0.00027262 -0.00071906 0.00000000
0.00029872 -0.00090017 0.00000000
0.00032270 -0.00109682 0.00000000
0.00034464 -0.00130771 0.00000000
0.00036463 -0.00153160 0.00000000
0.00038276 -0.00176730 0.00000000
0.00039912 -0.00201366 0.00000000
0.00041381 -0.00226963 0.00000000
0.00042691 -0.00253417 0.00000000
0.00043852 -0.00280632 0.00000000
0.00044872 -0.00308519 0.00000000
0.00045760 -0.00336991 0.00000000
0.00046527 -0.00365969 0.00000000
0.00047180 -0.00395381 0.00000000
0.00047728 -0.00425157 0.00000000
0.00048182 -0.00455236 0.00000000
0.00048549 -0.00485560 0.00000000
0.00048840 -0.00516080 0.00000000
0.00049062 -0.00546749 0.00000000
0.00049226 -0.00577528 0.00000000
0.00049340 -0.00608383 0.00000000
0.00049413 -0.00639286 0.00000000
0.00049454 -0.00670214 0.00000000
0.00049472 -0.00701150 0.00000000
0.00049477 -0.00732082 0.00000000
0.00000000 0.00000000 0.00000000
-0.00000000 -0.00001603 0.00000000
-0.00000000 -0.00006084 0.00000000
-0.00000000 -0.00013084 0.00000000
-0.00000000 -0.00022459 0.00000000
-0.00000000 -0.00034043 0.00000000
-0.00000000 -0.00047682 0.00000000
-0.00000000 -0.00063224 0.00000000
-0.00000000 -0.00080527 0.00000000
-0.00000000 -0.00099450 0.00000000
-0.00000000 -0.00119862 0.00000000
-0.00000000 -0.00141633 0.00000000
-0.00000000 -0.00164643 0.00000000
-0.00000000 -0.00188776 0.00000000
-0.00000000 -0.00213920 0.00000000
-0.00000000 -0.00239972 0.00000000
-0.00000000 -0.00266832 0.00000000
-0.00000000 -0.00294406 0.00000000
-0.00000000 -0.00322607 0.00000000
-0.00000000 -0.00351353 0.00000000
-0.00000000 -0.00380567 0.00000000
-0.00000000 -0.00410178 0.00000000
-0.00000000 -0.00440122 0.00000000
-0.00000000 -0.00470338 0.00000000
-0.00000000 -0.00500773 0.00000000
-0.00000000 -0.00531379 0.00000000
-0.00000000 -0.00562113 0.00000000
-0.00000000 -0.00592938 0.00000000
-0.00000000 -0.00623824 0.00000000
-0.00000000 -0.00654745 0.00000000
-0.00000000 -0.00685680 0.00000000
-0.00000000 -0.00716616 0.00000000
-0.00000000 -0.00747545 0.00000000

