# vtk DataFile Version 2.0
Written using Python VTK writer (Taiwo)
ASCII

DATASET UNSTRUCTURED_GRID
POINTS 23 float
0.000000 0.000000 0.000000
0.250000 0.000000 0.000000
0.500000 0.000000 0.000000
0.750000 0.000000 0.000000
1.000000 0.000000 0.000000
0.125000 0.000000 0.000000
0.375000 0.000000 0.000000
0.625000 0.000000 0.000000
0.875000 0.000000 0.000000
0.000000 0.100000 0.000000
0.250000 0.100000 0.000000
0.500000 0.100000 0.000000
0.750000 0.100000 0.000000
1.000000 0.100000 0.000000
0.125000 0.100000 0.000000
0.375000 0.100000 0.000000
0.625000 0.100000 0.000000
0.875000 0.100000 0.000000
0.000000 0.050000 0.000000
0.250000 0.050000 0.000000
0.500000 0.050000 0.000000
0.750000 0.050000 0.000000
1.000000 0.050000 0.000000

CELLS 4 36
8 0 1 10 9 5 19 14 18
8 1 2 11 10 6 20 15 19
8 2 3 12 11 7 21 16 20
8 3 4 13 12 8 22 17 21

CELL_TYPES 4
23
23
23
23

POINT_DATA 23
VECTORS displacement float
0.00000000 0.00000000 0.00000000
-0.00028451 -0.00077956 0.00000000
-0.00043193 -0.00261756 0.00000000
-0.00048597 -0.00494087 0.00000000
-0.00049375 -0.00739960 0.00000000
-0.00015485 -0.00021282 0.00000000
-0.00036766 -0.00160729 0.00000000
-0.00046451 -0.00374630 0.00000000
-0.00049173 -0.00616624 0.00000000
0.00000000 0.00000000 0.00000000
0.00028451 -0.00077956 0.00000000
0.00043193 -0.00261756 0.00000000
0.00048597 -0.00494087 0.00000000
0.00049375 -0.00739960 0.00000000
0.00015485 -0.00021282 0.00000000
0.00036766 -0.00160729 0.00000000
0.00046451 -0.00374630 0.00000000
0.00049173 -0.00616624 0.00000000
0.00000000 0.00000000 0.00000000
0.00000000 -0.00077619 0.00000000
0.00000000 -0.00261684 0.00000000
0.00000000 -0.00494056 0.00000000
0.00000000 -0.00739967 0.00000000

