# vtk DataFile Version 2.0
Written using Python VTK writer (Taiwo)
ASCII

DATASET UNSTRUCTURED_GRID
POINTS 13 float
0.000000 0.000000 0.000000
0.500000 0.000000 0.000000
1.000000 0.000000 0.000000
0.250000 0.000000 0.000000
0.750000 0.000000 0.000000
0.000000 0.100000 0.000000
0.500000 0.100000 0.000000
1.000000 0.100000 0.000000
0.250000 0.100000 0.000000
0.750000 0.100000 0.000000
0.000000 0.050000 0.000000
0.500000 0.050000 0.000000
1.000000 0.050000 0.000000

CELLS 2 18
8 0 1 6 5 3 11 8 10
8 1 2 7 6 4 12 9 11

CELL_TYPES 2
23
23

POINT_DATA 13
VECTORS displacement float
0.00000000 0.00000000 0.00000000
-0.00043014 -0.00233441 0.00000000
-0.00049293 -0.00701071 0.00000000
-0.00023622 -0.00063296 0.00000000
-0.00046889 -0.00459751 0.00000000
0.00000000 0.00000000 0.00000000
0.00043014 -0.00233441 0.00000000
0.00049293 -0.00701071 0.00000000
0.00023622 -0.00063296 0.00000000
0.00046889 -0.00459751 0.00000000
0.00000000 0.00000000 0.00000000
0.00000000 -0.00233228 0.00000000
0.00000000 -0.00701133 0.00000000

